# vtk DataFile Version 3.0
# 
2D Mesh Example
ASCII
DATASET POLYDATA
POINTS 64 float
0 0 0.0
1 0 0.0
1 1 0.0
0 1 0.0
0.5 0 0.0
0.25 0 0.0
0.125 0 0.0
0.0625 0 0.0
0.75 0 0.0
0.875 0 0.0
0.9375 0 0.0
1 0.5 0.0
1 0.25 0.0
1 0.125 0.0
1 0.0625 0.0
1 0.75 0.0
1 0.875 0.0
1 0.9375 0.0
0.5 1 0.0
0.75 1 0.0
0.875 1 0.0
0.9375 1 0.0
0.25 1 0.0
0.125 1 0.0
0.0625 1 0.0
0 0.5 0.0
0 0.75 0.0
0 0.875 0.0
0 0.9375 0.0
0 0.25 0.0
0 0.125 0.0
0 0.0625 0.0
0.625 0 0.0
0.5625 0 0.0
0.375 0 0.0
0.4375 0 0.0
0.3125 0 0.0
0.1875 0 0.0
0.6875 0 0.0
0.8125 0 0.0
1 0.625 0.0
1 0.5625 0.0
1 0.375 0.0
1 0.4375 0.0
1 0.3125 0.0
1 0.1875 0.0
1 0.6875 0.0
1 0.8125 0.0
0.375 1 0.0
0.4375 1 0.0
0.625 1 0.0
0.5625 1 0.0
0.6875 1 0.0
0.8125 1 0.0
0.3125 1 0.0
0.1875 1 0.0
0 0.375 0.0
0 0.4375 0.0
0 0.625 0.0
0 0.5625 0.0
0 0.6875 0.0
0 0.8125 0.0
0 0.3125 0.0
0 0.1875 0.0
LINES 128 384
2 0 7
2 1 10
2 1 14
2 2 17
2 2 21
2 3 24
2 3 28
2 0 31
2 4 33
2 4 35
2 5 36
2 5 37
2 6 37
2 6 7
2 7 6
2 7 0
2 8 38
2 8 39
2 9 39
2 9 10
2 10 9
2 10 1
2 11 41
2 11 43
2 12 44
2 12 45
2 13 45
2 13 14
2 14 13
2 14 1
2 15 46
2 15 47
2 16 47
2 16 17
2 17 16
2 17 2
2 18 49
2 18 51
2 19 52
2 19 53
2 20 53
2 20 21
2 21 20
2 21 2
2 22 54
2 22 55
2 23 55
2 23 24
2 24 23
2 24 3
2 25 57
2 25 59
2 26 60
2 26 61
2 27 61
2 27 28
2 28 27
2 28 3
2 29 62
2 29 63
2 30 63
2 30 31
2 31 30
2 31 0
2 32 38
2 32 33
2 33 32
2 33 4
2 34 36
2 34 35
2 35 34
2 35 4
2 36 34
2 36 5
2 37 6
2 37 5
2 38 32
2 38 8
2 39 9
2 39 8
2 40 46
2 40 41
2 41 40
2 41 11
2 42 44
2 42 43
2 43 42
2 43 11
2 44 42
2 44 12
2 45 13
2 45 12
2 46 40
2 46 15
2 47 16
2 47 15
2 48 54
2 48 49
2 49 48
2 49 18
2 50 52
2 50 51
2 51 50
2 51 18
2 52 50
2 52 19
2 53 20
2 53 19
2 54 48
2 54 22
2 55 23
2 55 22
2 56 62
2 56 57
2 57 56
2 57 25
2 58 60
2 58 59
2 59 58
2 59 25
2 60 58
2 60 26
2 61 27
2 61 26
2 62 56
2 62 29
2 63 30
2 63 29
CELL_DATA 128
SCALARS he_to_parent int 1
LOOKUP_TABLE default
1
0
1
0
1
0
1
0
1
0
1
0
1
0
1
0
0
1
0
1
0
1
1
0
1
0
1
0
1
0
0
1
0
1
0
1
1
0
1
0
1
0
1
0
0
1
0
1
0
1
1
0
1
0
1
0
1
0
0
1
0
1
0
1
1
0
1
0
0
1
0
1
1
0
0
1
0
1
1
0
1
0
1
0
0
1
0
1
1
0
0
1
0
1
1
0
1
0
1
0
0
1
0
1
1
0
0
1
0
1
1
0
1
0
1
0
0
1
0
1
1
0
0
1
0
1
1
0
