# vtk DataFile Version 3.0
2D Mesh Example
ASCII
DATASET POLYDATA
POINTS 9 float
0 0 0.0
1 0 0.0
1 1 0.0
0 1 0.0
0.5 0 0.0
1 0.5 0.0
0.5 1 0.0
0 0.5 0.0
0.3535533905932738 0.35355339059327373 0.0
LINES 20 60
2 0 8
2 1 4
2 1 5
2 2 5
2 2 6
2 3 6
2 3 7
2 0 7
2 4 1
2 4 8
2 5 2
2 5 1
2 6 3
2 6 2
2 7 0
2 7 3
2 8 4
2 8 0
2 4 0
2 0 4
CELL_DATA 20
SCALARS he_to_parent int 1
LOOKUP_TABLE default
1
0
1
0
1
0
1
0
1
2
1
0
1
0
1
0
1
2
0
2
