# vtk DataFile Version 3.0
2D Mesh Example
ASCII
DATASET POLYDATA
POINTS 8 float
0 0 0.0
1 0 0.0
1 1 0.0
0 1 0.0
0.5 0 0.0
1 0.5 0.0
0.5 1 0.0
0 0.5 0.0
LINES 16 48
2 0 4
2 1 4
2 1 5
2 2 5
2 2 6
2 3 6
2 3 7
2 0 7
2 4 1
2 4 0
2 5 2
2 5 1
2 6 3
2 6 2
2 7 0
2 7 3
CELL_DATA 16
SCALARS he_to_parent int 1
LOOKUP_TABLE default
1
0
1
0
1
0
1
0
1
0
1
0
1
0
1
0
